V -t * -v 1.0a5 -a 0
A -t * -n 1 -p 0 -o 0x7fffffff -c 30 -a 1
A -t * -h 1 -m 1073741823 -s 0
c -t * -i 0 -n Red
c -t * -i 1 -n Blue
n -t * -a 4 -s 4 -S UP -v circle -c black -i black
n -t * -a 0 -s 0 -S UP -v circle -c black -i black
n -t * -a 5 -s 5 -S UP -v circle -c black -i black
n -t * -a 1 -s 1 -S UP -v circle -c black -i black
n -t * -a 2 -s 2 -S UP -v circle -c black -i black
n -t * -a 3 -s 3 -S UP -v circle -c black -i black
l -t * -s 0 -d 2 -S UP -r 10000000 -D 0.002 -c black -o right-down
l -t * -s 1 -d 2 -S UP -r 10000000 -D 0.0030000000000000001 -c black -o right-up
l -t * -s 2 -d 3 -S UP -r 1500000 -D 0.02 -c black -o right
l -t * -s 4 -d 3 -S UP -r 10000000 -D 0.0040000000000000001 -c black -o left-down
l -t * -s 5 -d 3 -S UP -r 10000000 -D 0.0050000000000000001 -c black -o left-up
q -t * -s 3 -d 2 -a 0
q -t * -s 2 -d 3 -a 0
+ -t 0 -s 0 -d 2 -p tcp -e 40 -c 0 -i 0 -a 0 -x {0.0 4.0 0 ------- null}
- -t 0 -s 0 -d 2 -p tcp -e 40 -c 0 -i 0 -a 0 -x {0.0 4.0 0 ------- null}
h -t 0 -s 0 -d 2 -p tcp -e 40 -c 0 -i 0 -a 0 -x {0.0 4.0 -1 ------- null}
r -t 0.002032 -s 0 -d 2 -p tcp -e 40 -c 0 -i 0 -a 0 -x {0.0 4.0 0 ------- null}
+ -t 0.002032 -s 2 -d 3 -p tcp -e 40 -c 0 -i 0 -a 0 -x {0.0 4.0 0 ------- null}
- -t 0.002032 -s 2 -d 3 -p tcp -e 40 -c 0 -i 0 -a 0 -x {0.0 4.0 0 ------- null}
h -t 0.002032 -s 2 -d 3 -p tcp -e 40 -c 0 -i 0 -a 0 -x {0.0 4.0 -1 ------- null}
r -t 0.0222453333333333 -s 2 -d 3 -p tcp -e 40 -c 0 -i 0 -a 0 -x {0.0 4.0 0 ------- null}
+ -t 0.0222453333333333 -s 3 -d 4 -p tcp -e 40 -c 0 -i 0 -a 0 -x {0.0 4.0 0 ------- null}
- -t 0.0222453333333333 -s 3 -d 4 -p tcp -e 40 -c 0 -i 0 -a 0 -x {0.0 4.0 0 ------- null}
h -t 0.0222453333333333 -s 3 -d 4 -p tcp -e 40 -c 0 -i 0 -a 0 -x {0.0 4.0 -1 ------- null}
r -t 0.0262773333333333 -s 3 -d 4 -p tcp -e 40 -c 0 -i 0 -a 0 -x {0.0 4.0 0 ------- null}
+ -t 0.0262773333333333 -s 4 -d 3 -p ack -e 40 -c 0 -i 1 -a 0 -x {4.0 0.0 0 ------- null}
- -t 0.0262773333333333 -s 4 -d 3 -p ack -e 40 -c 0 -i 1 -a 0 -x {4.0 0.0 0 ------- null}
h -t 0.0262773333333333 -s 4 -d 3 -p ack -e 40 -c 0 -i 1 -a 0 -x {4.0 0.0 -1 ------- null}
r -t 0.0303093333333333 -s 4 -d 3 -p ack -e 40 -c 0 -i 1 -a 0 -x {4.0 0.0 0 ------- null}
+ -t 0.0303093333333333 -s 3 -d 2 -p ack -e 40 -c 0 -i 1 -a 0 -x {4.0 0.0 0 ------- null}
- -t 0.0303093333333333 -s 3 -d 2 -p ack -e 40 -c 0 -i 1 -a 0 -x {4.0 0.0 0 ------- null}
h -t 0.0303093333333333 -s 3 -d 2 -p ack -e 40 -c 0 -i 1 -a 0 -x {4.0 0.0 -1 ------- null}
r -t 0.0505226666666667 -s 3 -d 2 -p ack -e 40 -c 0 -i 1 -a 0 -x {4.0 0.0 0 ------- null}
+ -t 0.0505226666666667 -s 2 -d 0 -p ack -e 40 -c 0 -i 1 -a 0 -x {4.0 0.0 0 ------- null}
- -t 0.0505226666666667 -s 2 -d 0 -p ack -e 40 -c 0 -i 1 -a 0 -x {4.0 0.0 0 ------- null}
h -t 0.0505226666666667 -s 2 -d 0 -p ack -e 40 -c 0 -i 1 -a 0 -x {4.0 0.0 -1 ------- null}
r -t 0.0525546666666667 -s 2 -d 0 -p ack -e 40 -c 0 -i 1 -a 0 -x {4.0 0.0 0 ------- null}
+ -t 0.0525546666666667 -s 0 -d 2 -p tcp -e 1040 -c 0 -i 2 -a 0 -x {0.0 4.0 1 ------- null}
- -t 0.0525546666666667 -s 0 -d 2 -p tcp -e 1040 -c 0 -i 2 -a 0 -x {0.0 4.0 1 ------- null}
h -t 0.0525546666666667 -s 0 -d 2 -p tcp -e 1040 -c 0 -i 2 -a 0 -x {0.0 4.0 -1 ------- null}
+ -t 0.0525546666666667 -s 0 -d 2 -p tcp -e 1040 -c 0 -i 3 -a 0 -x {0.0 4.0 2 ------- null}
- -t 0.0533866666666667 -s 0 -d 2 -p tcp -e 1040 -c 0 -i 3 -a 0 -x {0.0 4.0 2 ------- null}
h -t 0.0533866666666667 -s 0 -d 2 -p tcp -e 1040 -c 0 -i 3 -a 0 -x {0.0 4.0 -1 ------- null}
r -t 0.0553866666666667 -s 0 -d 2 -p tcp -e 1040 -c 0 -i 2 -a 0 -x {0.0 4.0 1 ------- null}
+ -t 0.0553866666666667 -s 2 -d 3 -p tcp -e 1040 -c 0 -i 2 -a 0 -x {0.0 4.0 1 ------- null}
- -t 0.0553866666666667 -s 2 -d 3 -p tcp -e 1040 -c 0 -i 2 -a 0 -x {0.0 4.0 1 ------- null}
h -t 0.0553866666666667 -s 2 -d 3 -p tcp -e 1040 -c 0 -i 2 -a 0 -x {0.0 4.0 -1 ------- null}
r -t 0.0562186666666667 -s 0 -d 2 -p tcp -e 1040 -c 0 -i 3 -a 0 -x {0.0 4.0 2 ------- null}
+ -t 0.0562186666666667 -s 2 -d 3 -p tcp -e 1040 -c 0 -i 3 -a 0 -x {0.0 4.0 2 ------- null}
- -t 0.0609333333333333 -s 2 -d 3 -p tcp -e 1040 -c 0 -i 3 -a 0 -x {0.0 4.0 2 ------- null}
h -t 0.0609333333333333 -s 2 -d 3 -p tcp -e 1040 -c 0 -i 3 -a 0 -x {0.0 4.0 -1 ------- null}
r -t 0.0809333333333333 -s 2 -d 3 -p tcp -e 1040 -c 0 -i 2 -a 0 -x {0.0 4.0 1 ------- null}
+ -t 0.0809333333333333 -s 3 -d 4 -p tcp -e 1040 -c 0 -i 2 -a 0 -x {0.0 4.0 1 ------- null}
- -t 0.0809333333333333 -s 3 -d 4 -p tcp -e 1040 -c 0 -i 2 -a 0 -x {0.0 4.0 1 ------- null}
h -t 0.0809333333333333 -s 3 -d 4 -p tcp -e 1040 -c 0 -i 2 -a 0 -x {0.0 4.0 -1 ------- null}
r -t 0.0857653333333333 -s 3 -d 4 -p tcp -e 1040 -c 0 -i 2 -a 0 -x {0.0 4.0 1 ------- null}
+ -t 0.0857653333333333 -s 4 -d 3 -p ack -e 40 -c 0 -i 4 -a 0 -x {4.0 0.0 1 ------- null}
- -t 0.0857653333333333 -s 4 -d 3 -p ack -e 40 -c 0 -i 4 -a 0 -x {4.0 0.0 1 ------- null}
h -t 0.0857653333333333 -s 4 -d 3 -p ack -e 40 -c 0 -i 4 -a 0 -x {4.0 0.0 -1 ------- null}
r -t 0.08648 -s 2 -d 3 -p tcp -e 1040 -c 0 -i 3 -a 0 -x {0.0 4.0 2 ------- null}
+ -t 0.08648 -s 3 -d 4 -p tcp -e 1040 -c 0 -i 3 -a 0 -x {0.0 4.0 2 ------- null}
- -t 0.08648 -s 3 -d 4 -p tcp -e 1040 -c 0 -i 3 -a 0 -x {0.0 4.0 2 ------- null}
h -t 0.08648 -s 3 -d 4 -p tcp -e 1040 -c 0 -i 3 -a 0 -x {0.0 4.0 -1 ------- null}
r -t 0.0897973333333333 -s 4 -d 3 -p ack -e 40 -c 0 -i 4 -a 0 -x {4.0 0.0 1 ------- null}
+ -t 0.0897973333333333 -s 3 -d 2 -p ack -e 40 -c 0 -i 4 -a 0 -x {4.0 0.0 1 ------- null}
- -t 0.0897973333333333 -s 3 -d 2 -p ack -e 40 -c 0 -i 4 -a 0 -x {4.0 0.0 1 ------- null}
h -t 0.0897973333333333 -s 3 -d 2 -p ack -e 40 -c 0 -i 4 -a 0 -x {4.0 0.0 -1 ------- null}
r -t 0.091312 -s 3 -d 4 -p tcp -e 1040 -c 0 -i 3 -a 0 -x {0.0 4.0 2 ------- null}
+ -t 0.091312 -s 4 -d 3 -p ack -e 40 -c 0 -i 5 -a 0 -x {4.0 0.0 2 ------- null}
- -t 0.091312 -s 4 -d 3 -p ack -e 40 -c 0 -i 5 -a 0 -x {4.0 0.0 2 ------- null}
h -t 0.091312 -s 4 -d 3 -p ack -e 40 -c 0 -i 5 -a 0 -x {4.0 0.0 -1 ------- null}
r -t 0.095344 -s 4 -d 3 -p ack -e 40 -c 0 -i 5 -a 0 -x {4.0 0.0 2 ------- null}
+ -t 0.095344 -s 3 -d 2 -p ack -e 40 -c 0 -i 5 -a 0 -x {4.0 0.0 2 ------- null}
- -t 0.095344 -s 3 -d 2 -p ack -e 40 -c 0 -i 5 -a 0 -x {4.0 0.0 2 ------- null}
h -t 0.095344 -s 3 -d 2 -p ack -e 40 -c 0 -i 5 -a 0 -x {4.0 0.0 -1 ------- null}
r -t 0.110010666666667 -s 3 -d 2 -p ack -e 40 -c 0 -i 4 -a 0 -x {4.0 0.0 1 ------- null}
+ -t 0.110010666666667 -s 2 -d 0 -p ack -e 40 -c 0 -i 4 -a 0 -x {4.0 0.0 1 ------- null}
- -t 0.110010666666667 -s 2 -d 0 -p ack -e 40 -c 0 -i 4 -a 0 -x {4.0 0.0 1 ------- null}
h -t 0.110010666666667 -s 2 -d 0 -p ack -e 40 -c 0 -i 4 -a 0 -x {4.0 0.0 -1 ------- null}
r -t 0.112042666666667 -s 2 -d 0 -p ack -e 40 -c 0 -i 4 -a 0 -x {4.0 0.0 1 ------- null}
+ -t 0.112042666666667 -s 0 -d 2 -p tcp -e 1040 -c 0 -i 6 -a 0 -x {0.0 4.0 3 ------- null}
- -t 0.112042666666667 -s 0 -d 2 -p tcp -e 1040 -c 0 -i 6 -a 0 -x {0.0 4.0 3 ------- null}
h -t 0.112042666666667 -s 0 -d 2 -p tcp -e 1040 -c 0 -i 6 -a 0 -x {0.0 4.0 -1 ------- null}
+ -t 0.112042666666667 -s 0 -d 2 -p tcp -e 1040 -c 0 -i 7 -a 0 -x {0.0 4.0 4 ------- null}
- -t 0.112874666666667 -s 0 -d 2 -p tcp -e 1040 -c 0 -i 7 -a 0 -x {0.0 4.0 4 ------- null}
h -t 0.112874666666667 -s 0 -d 2 -p tcp -e 1040 -c 0 -i 7 -a 0 -x {0.0 4.0 -1 ------- null}
r -t 0.114874666666667 -s 0 -d 2 -p tcp -e 1040 -c 0 -i 6 -a 0 -x {0.0 4.0 3 ------- null}
+ -t 0.114874666666667 -s 2 -d 3 -p tcp -e 1040 -c 0 -i 6 -a 0 -x {0.0 4.0 3 ------- null}
- -t 0.114874666666667 -s 2 -d 3 -p tcp -e 1040 -c 0 -i 6 -a 0 -x {0.0 4.0 3 ------- null}
h -t 0.114874666666667 -s 2 -d 3 -p tcp -e 1040 -c 0 -i 6 -a 0 -x {0.0 4.0 -1 ------- null}
r -t 0.115557333333333 -s 3 -d 2 -p ack -e 40 -c 0 -i 5 -a 0 -x {4.0 0.0 2 ------- null}
+ -t 0.115557333333333 -s 2 -d 0 -p ack -e 40 -c 0 -i 5 -a 0 -x {4.0 0.0 2 ------- null}
- -t 0.115557333333333 -s 2 -d 0 -p ack -e 40 -c 0 -i 5 -a 0 -x {4.0 0.0 2 ------- null}
h -t 0.115557333333333 -s 2 -d 0 -p ack -e 40 -c 0 -i 5 -a 0 -x {4.0 0.0 -1 ------- null}
r -t 0.115706666666667 -s 0 -d 2 -p tcp -e 1040 -c 0 -i 7 -a 0 -x {0.0 4.0 4 ------- null}
+ -t 0.115706666666667 -s 2 -d 3 -p tcp -e 1040 -c 0 -i 7 -a 0 -x {0.0 4.0 4 ------- null}
r -t 0.117589333333333 -s 2 -d 0 -p ack -e 40 -c 0 -i 5 -a 0 -x {4.0 0.0 2 ------- null}
+ -t 0.117589333333333 -s 0 -d 2 -p tcp -e 1040 -c 0 -i 8 -a 0 -x {0.0 4.0 5 ------- null}
- -t 0.117589333333333 -s 0 -d 2 -p tcp -e 1040 -c 0 -i 8 -a 0 -x {0.0 4.0 5 ------- null}
h -t 0.117589333333333 -s 0 -d 2 -p tcp -e 1040 -c 0 -i 8 -a 0 -x {0.0 4.0 -1 ------- null}
+ -t 0.117589333333333 -s 0 -d 2 -p tcp -e 1040 -c 0 -i 9 -a 0 -x {0.0 4.0 6 ------- null}
- -t 0.118421333333333 -s 0 -d 2 -p tcp -e 1040 -c 0 -i 9 -a 0 -x {0.0 4.0 6 ------- null}
h -t 0.118421333333333 -s 0 -d 2 -p tcp -e 1040 -c 0 -i 9 -a 0 -x {0.0 4.0 -1 ------- null}
- -t 0.120421333333333 -s 2 -d 3 -p tcp -e 1040 -c 0 -i 7 -a 0 -x {0.0 4.0 4 ------- null}
h -t 0.120421333333333 -s 2 -d 3 -p tcp -e 1040 -c 0 -i 7 -a 0 -x {0.0 4.0 -1 ------- null}
r -t 0.120421333333333 -s 0 -d 2 -p tcp -e 1040 -c 0 -i 8 -a 0 -x {0.0 4.0 5 ------- null}
+ -t 0.120421333333333 -s 2 -d 3 -p tcp -e 1040 -c 0 -i 8 -a 0 -x {0.0 4.0 5 ------- null}
r -t 0.121253333333333 -s 0 -d 2 -p tcp -e 1040 -c 0 -i 9 -a 0 -x {0.0 4.0 6 ------- null}
+ -t 0.121253333333333 -s 2 -d 3 -p tcp -e 1040 -c 0 -i 9 -a 0 -x {0.0 4.0 6 ------- null}
- -t 0.125968 -s 2 -d 3 -p tcp -e 1040 -c 0 -i 8 -a 0 -x {0.0 4.0 5 ------- null}
h -t 0.125968 -s 2 -d 3 -p tcp -e 1040 -c 0 -i 8 -a 0 -x {0.0 4.0 -1 ------- null}
- -t 0.131514666666667 -s 2 -d 3 -p tcp -e 1040 -c 0 -i 9 -a 0 -x {0.0 4.0 6 ------- null}
h -t 0.131514666666667 -s 2 -d 3 -p tcp -e 1040 -c 0 -i 9 -a 0 -x {0.0 4.0 -1 ------- null}
r -t 0.140421333333333 -s 2 -d 3 -p tcp -e 1040 -c 0 -i 6 -a 0 -x {0.0 4.0 3 ------- null}
+ -t 0.140421333333333 -s 3 -d 4 -p tcp -e 1040 -c 0 -i 6 -a 0 -x {0.0 4.0 3 ------- null}
- -t 0.140421333333333 -s 3 -d 4 -p tcp -e 1040 -c 0 -i 6 -a 0 -x {0.0 4.0 3 ------- null}
h -t 0.140421333333333 -s 3 -d 4 -p tcp -e 1040 -c 0 -i 6 -a 0 -x {0.0 4.0 -1 ------- null}
r -t 0.145253333333333 -s 3 -d 4 -p tcp -e 1040 -c 0 -i 6 -a 0 -x {0.0 4.0 3 ------- null}
+ -t 0.145253333333333 -s 4 -d 3 -p ack -e 40 -c 0 -i 10 -a 0 -x {4.0 0.0 3 ------- null}
- -t 0.145253333333333 -s 4 -d 3 -p ack -e 40 -c 0 -i 10 -a 0 -x {4.0 0.0 3 ------- null}
h -t 0.145253333333333 -s 4 -d 3 -p ack -e 40 -c 0 -i 10 -a 0 -x {4.0 0.0 -1 ------- null}
r -t 0.145968 -s 2 -d 3 -p tcp -e 1040 -c 0 -i 7 -a 0 -x {0.0 4.0 4 ------- null}
+ -t 0.145968 -s 3 -d 4 -p tcp -e 1040 -c 0 -i 7 -a 0 -x {0.0 4.0 4 ------- null}
- -t 0.145968 -s 3 -d 4 -p tcp -e 1040 -c 0 -i 7 -a 0 -x {0.0 4.0 4 ------- null}
h -t 0.145968 -s 3 -d 4 -p tcp -e 1040 -c 0 -i 7 -a 0 -x {0.0 4.0 -1 ------- null}
r -t 0.149285333333333 -s 4 -d 3 -p ack -e 40 -c 0 -i 10 -a 0 -x {4.0 0.0 3 ------- null}
+ -t 0.149285333333333 -s 3 -d 2 -p ack -e 40 -c 0 -i 10 -a 0 -x {4.0 0.0 3 ------- null}
- -t 0.149285333333333 -s 3 -d 2 -p ack -e 40 -c 0 -i 10 -a 0 -x {4.0 0.0 3 ------- null}
h -t 0.149285333333333 -s 3 -d 2 -p ack -e 40 -c 0 -i 10 -a 0 -x {4.0 0.0 -1 ------- null}
r -t 0.1508 -s 3 -d 4 -p tcp -e 1040 -c 0 -i 7 -a 0 -x {0.0 4.0 4 ------- null}
+ -t 0.1508 -s 4 -d 3 -p ack -e 40 -c 0 -i 11 -a 0 -x {4.0 0.0 4 ------- null}
- -t 0.1508 -s 4 -d 3 -p ack -e 40 -c 0 -i 11 -a 0 -x {4.0 0.0 4 ------- null}
h -t 0.1508 -s 4 -d 3 -p ack -e 40 -c 0 -i 11 -a 0 -x {4.0 0.0 -1 ------- null}
r -t 0.151514666666667 -s 2 -d 3 -p tcp -e 1040 -c 0 -i 8 -a 0 -x {0.0 4.0 5 ------- null}
+ -t 0.151514666666667 -s 3 -d 4 -p tcp -e 1040 -c 0 -i 8 -a 0 -x {0.0 4.0 5 ------- null}
- -t 0.151514666666667 -s 3 -d 4 -p tcp -e 1040 -c 0 -i 8 -a 0 -x {0.0 4.0 5 ------- null}
h -t 0.151514666666667 -s 3 -d 4 -p tcp -e 1040 -c 0 -i 8 -a 0 -x {0.0 4.0 -1 ------- null}
r -t 0.154832 -s 4 -d 3 -p ack -e 40 -c 0 -i 11 -a 0 -x {4.0 0.0 4 ------- null}
+ -t 0.154832 -s 3 -d 2 -p ack -e 40 -c 0 -i 11 -a 0 -x {4.0 0.0 4 ------- null}
- -t 0.154832 -s 3 -d 2 -p ack -e 40 -c 0 -i 11 -a 0 -x {4.0 0.0 4 ------- null}
h -t 0.154832 -s 3 -d 2 -p ack -e 40 -c 0 -i 11 -a 0 -x {4.0 0.0 -1 ------- null}
r -t 0.156346666666667 -s 3 -d 4 -p tcp -e 1040 -c 0 -i 8 -a 0 -x {0.0 4.0 5 ------- null}
+ -t 0.156346666666667 -s 4 -d 3 -p ack -e 40 -c 0 -i 12 -a 0 -x {4.0 0.0 5 ------- null}
- -t 0.156346666666667 -s 4 -d 3 -p ack -e 40 -c 0 -i 12 -a 0 -x {4.0 0.0 5 ------- null}
h -t 0.156346666666667 -s 4 -d 3 -p ack -e 40 -c 0 -i 12 -a 0 -x {4.0 0.0 -1 ------- null}
r -t 0.157061333333333 -s 2 -d 3 -p tcp -e 1040 -c 0 -i 9 -a 0 -x {0.0 4.0 6 ------- null}
+ -t 0.157061333333333 -s 3 -d 4 -p tcp -e 1040 -c 0 -i 9 -a 0 -x {0.0 4.0 6 ------- null}
- -t 0.157061333333333 -s 3 -d 4 -p tcp -e 1040 -c 0 -i 9 -a 0 -x {0.0 4.0 6 ------- null}
h -t 0.157061333333333 -s 3 -d 4 -p tcp -e 1040 -c 0 -i 9 -a 0 -x {0.0 4.0 -1 ------- null}
r -t 0.160378666666667 -s 4 -d 3 -p ack -e 40 -c 0 -i 12 -a 0 -x {4.0 0.0 5 ------- null}
+ -t 0.160378666666667 -s 3 -d 2 -p ack -e 40 -c 0 -i 12 -a 0 -x {4.0 0.0 5 ------- null}
- -t 0.160378666666667 -s 3 -d 2 -p ack -e 40 -c 0 -i 12 -a 0 -x {4.0 0.0 5 ------- null}
h -t 0.160378666666667 -s 3 -d 2 -p ack -e 40 -c 0 -i 12 -a 0 -x {4.0 0.0 -1 ------- null}
r -t 0.161893333333333 -s 3 -d 4 -p tcp -e 1040 -c 0 -i 9 -a 0 -x {0.0 4.0 6 ------- null}
+ -t 0.161893333333333 -s 4 -d 3 -p ack -e 40 -c 0 -i 13 -a 0 -x {4.0 0.0 6 ------- null}
- -t 0.161893333333333 -s 4 -d 3 -p ack -e 40 -c 0 -i 13 -a 0 -x {4.0 0.0 6 ------- null}
h -t 0.161893333333333 -s 4 -d 3 -p ack -e 40 -c 0 -i 13 -a 0 -x {4.0 0.0 -1 ------- null}
r -t 0.165925333333333 -s 4 -d 3 -p ack -e 40 -c 0 -i 13 -a 0 -x {4.0 0.0 6 ------- null}
+ -t 0.165925333333333 -s 3 -d 2 -p ack -e 40 -c 0 -i 13 -a 0 -x {4.0 0.0 6 ------- null}
- -t 0.165925333333333 -s 3 -d 2 -p ack -e 40 -c 0 -i 13 -a 0 -x {4.0 0.0 6 ------- null}
h -t 0.165925333333333 -s 3 -d 2 -p ack -e 40 -c 0 -i 13 -a 0 -x {4.0 0.0 -1 ------- null}
r -t 0.169498666666667 -s 3 -d 2 -p ack -e 40 -c 0 -i 10 -a 0 -x {4.0 0.0 3 ------- null}
+ -t 0.169498666666667 -s 2 -d 0 -p ack -e 40 -c 0 -i 10 -a 0 -x {4.0 0.0 3 ------- null}
- -t 0.169498666666667 -s 2 -d 0 -p ack -e 40 -c 0 -i 10 -a 0 -x {4.0 0.0 3 ------- null}
h -t 0.169498666666667 -s 2 -d 0 -p ack -e 40 -c 0 -i 10 -a 0 -x {4.0 0.0 -1 ------- null}
r -t 0.171530666666667 -s 2 -d 0 -p ack -e 40 -c 0 -i 10 -a 0 -x {4.0 0.0 3 ------- null}
+ -t 0.171530666666667 -s 0 -d 2 -p tcp -e 1040 -c 0 -i 14 -a 0 -x {0.0 4.0 7 ------- null}
- -t 0.171530666666667 -s 0 -d 2 -p tcp -e 1040 -c 0 -i 14 -a 0 -x {0.0 4.0 7 ------- null}
h -t 0.171530666666667 -s 0 -d 2 -p tcp -e 1040 -c 0 -i 14 -a 0 -x {0.0 4.0 -1 ------- null}
+ -t 0.171530666666667 -s 0 -d 2 -p tcp -e 1040 -c 0 -i 15 -a 0 -x {0.0 4.0 8 ------- null}
- -t 0.172362666666667 -s 0 -d 2 -p tcp -e 1040 -c 0 -i 15 -a 0 -x {0.0 4.0 8 ------- null}
h -t 0.172362666666667 -s 0 -d 2 -p tcp -e 1040 -c 0 -i 15 -a 0 -x {0.0 4.0 -1 ------- null}
r -t 0.174362666666667 -s 0 -d 2 -p tcp -e 1040 -c 0 -i 14 -a 0 -x {0.0 4.0 7 ------- null}
+ -t 0.174362666666667 -s 2 -d 3 -p tcp -e 1040 -c 0 -i 14 -a 0 -x {0.0 4.0 7 ------- null}
- -t 0.174362666666667 -s 2 -d 3 -p tcp -e 1040 -c 0 -i 14 -a 0 -x {0.0 4.0 7 ------- null}
h -t 0.174362666666667 -s 2 -d 3 -p tcp -e 1040 -c 0 -i 14 -a 0 -x {0.0 4.0 -1 ------- null}
r -t 0.175045333333333 -s 3 -d 2 -p ack -e 40 -c 0 -i 11 -a 0 -x {4.0 0.0 4 ------- null}
+ -t 0.175045333333333 -s 2 -d 0 -p ack -e 40 -c 0 -i 11 -a 0 -x {4.0 0.0 4 ------- null}
- -t 0.175045333333333 -s 2 -d 0 -p ack -e 40 -c 0 -i 11 -a 0 -x {4.0 0.0 4 ------- null}
h -t 0.175045333333333 -s 2 -d 0 -p ack -e 40 -c 0 -i 11 -a 0 -x {4.0 0.0 -1 ------- null}
r -t 0.175194666666667 -s 0 -d 2 -p tcp -e 1040 -c 0 -i 15 -a 0 -x {0.0 4.0 8 ------- null}
+ -t 0.175194666666667 -s 2 -d 3 -p tcp -e 1040 -c 0 -i 15 -a 0 -x {0.0 4.0 8 ------- null}
r -t 0.177077333333333 -s 2 -d 0 -p ack -e 40 -c 0 -i 11 -a 0 -x {4.0 0.0 4 ------- null}
+ -t 0.177077333333333 -s 0 -d 2 -p tcp -e 1040 -c 0 -i 16 -a 0 -x {0.0 4.0 9 ------- null}
- -t 0.177077333333333 -s 0 -d 2 -p tcp -e 1040 -c 0 -i 16 -a 0 -x {0.0 4.0 9 ------- null}
h -t 0.177077333333333 -s 0 -d 2 -p tcp -e 1040 -c 0 -i 16 -a 0 -x {0.0 4.0 -1 ------- null}
+ -t 0.177077333333333 -s 0 -d 2 -p tcp -e 1040 -c 0 -i 17 -a 0 -x {0.0 4.0 10 ------- null}
- -t 0.177909333333333 -s 0 -d 2 -p tcp -e 1040 -c 0 -i 17 -a 0 -x {0.0 4.0 10 ------- null}
h -t 0.177909333333333 -s 0 -d 2 -p tcp -e 1040 -c 0 -i 17 -a 0 -x {0.0 4.0 -1 ------- null}
- -t 0.179909333333333 -s 2 -d 3 -p tcp -e 1040 -c 0 -i 15 -a 0 -x {0.0 4.0 8 ------- null}
h -t 0.179909333333333 -s 2 -d 3 -p tcp -e 1040 -c 0 -i 15 -a 0 -x {0.0 4.0 -1 ------- null}
r -t 0.179909333333333 -s 0 -d 2 -p tcp -e 1040 -c 0 -i 16 -a 0 -x {0.0 4.0 9 ------- null}
+ -t 0.179909333333333 -s 2 -d 3 -p tcp -e 1040 -c 0 -i 16 -a 0 -x {0.0 4.0 9 ------- null}
r -t 0.180592 -s 3 -d 2 -p ack -e 40 -c 0 -i 12 -a 0 -x {4.0 0.0 5 ------- null}
+ -t 0.180592 -s 2 -d 0 -p ack -e 40 -c 0 -i 12 -a 0 -x {4.0 0.0 5 ------- null}
- -t 0.180592 -s 2 -d 0 -p ack -e 40 -c 0 -i 12 -a 0 -x {4.0 0.0 5 ------- null}
h -t 0.180592 -s 2 -d 0 -p ack -e 40 -c 0 -i 12 -a 0 -x {4.0 0.0 -1 ------- null}
r -t 0.180741333333333 -s 0 -d 2 -p tcp -e 1040 -c 0 -i 17 -a 0 -x {0.0 4.0 10 ------- null}
+ -t 0.180741333333333 -s 2 -d 3 -p tcp -e 1040 -c 0 -i 17 -a 0 -x {0.0 4.0 10 ------- null}
r -t 0.182624 -s 2 -d 0 -p ack -e 40 -c 0 -i 12 -a 0 -x {4.0 0.0 5 ------- null}
+ -t 0.182624 -s 0 -d 2 -p tcp -e 1040 -c 0 -i 18 -a 0 -x {0.0 4.0 11 ------- null}
- -t 0.182624 -s 0 -d 2 -p tcp -e 1040 -c 0 -i 18 -a 0 -x {0.0 4.0 11 ------- null}
h -t 0.182624 -s 0 -d 2 -p tcp -e 1040 -c 0 -i 18 -a 0 -x {0.0 4.0 -1 ------- null}
+ -t 0.182624 -s 0 -d 2 -p tcp -e 1040 -c 0 -i 19 -a 0 -x {0.0 4.0 12 ------- null}
- -t 0.183456 -s 0 -d 2 -p tcp -e 1040 -c 0 -i 19 -a 0 -x {0.0 4.0 12 ------- null}
h -t 0.183456 -s 0 -d 2 -p tcp -e 1040 -c 0 -i 19 -a 0 -x {0.0 4.0 -1 ------- null}
r -t 0.185456 -s 0 -d 2 -p tcp -e 1040 -c 0 -i 18 -a 0 -x {0.0 4.0 11 ------- null}
+ -t 0.185456 -s 2 -d 3 -p tcp -e 1040 -c 0 -i 18 -a 0 -x {0.0 4.0 11 ------- null}
- -t 0.185456 -s 2 -d 3 -p tcp -e 1040 -c 0 -i 16 -a 0 -x {0.0 4.0 9 ------- null}
h -t 0.185456 -s 2 -d 3 -p tcp -e 1040 -c 0 -i 16 -a 0 -x {0.0 4.0 -1 ------- null}
r -t 0.186138666666667 -s 3 -d 2 -p ack -e 40 -c 0 -i 13 -a 0 -x {4.0 0.0 6 ------- null}
+ -t 0.186138666666667 -s 2 -d 0 -p ack -e 40 -c 0 -i 13 -a 0 -x {4.0 0.0 6 ------- null}
- -t 0.186138666666667 -s 2 -d 0 -p ack -e 40 -c 0 -i 13 -a 0 -x {4.0 0.0 6 ------- null}
h -t 0.186138666666667 -s 2 -d 0 -p ack -e 40 -c 0 -i 13 -a 0 -x {4.0 0.0 -1 ------- null}
r -t 0.186288 -s 0 -d 2 -p tcp -e 1040 -c 0 -i 19 -a 0 -x {0.0 4.0 12 ------- null}
+ -t 0.186288 -s 2 -d 3 -p tcp -e 1040 -c 0 -i 19 -a 0 -x {0.0 4.0 12 ------- null}
r -t 0.188170666666667 -s 2 -d 0 -p ack -e 40 -c 0 -i 13 -a 0 -x {4.0 0.0 6 ------- null}
+ -t 0.188170666666667 -s 0 -d 2 -p tcp -e 1040 -c 0 -i 20 -a 0 -x {0.0 4.0 13 ------- null}
- -t 0.188170666666667 -s 0 -d 2 -p tcp -e 1040 -c 0 -i 20 -a 0 -x {0.0 4.0 13 ------- null}
h -t 0.188170666666667 -s 0 -d 2 -p tcp -e 1040 -c 0 -i 20 -a 0 -x {0.0 4.0 -1 ------- null}
+ -t 0.188170666666667 -s 0 -d 2 -p tcp -e 1040 -c 0 -i 21 -a 0 -x {0.0 4.0 14 ------- null}
- -t 0.189002666666667 -s 0 -d 2 -p tcp -e 1040 -c 0 -i 21 -a 0 -x {0.0 4.0 14 ------- null}
h -t 0.189002666666667 -s 0 -d 2 -p tcp -e 1040 -c 0 -i 21 -a 0 -x {0.0 4.0 -1 ------- null}
r -t 0.191002666666667 -s 0 -d 2 -p tcp -e 1040 -c 0 -i 20 -a 0 -x {0.0 4.0 13 ------- null}
+ -t 0.191002666666667 -s 2 -d 3 -p tcp -e 1040 -c 0 -i 20 -a 0 -x {0.0 4.0 13 ------- null}
- -t 0.191002666666667 -s 2 -d 3 -p tcp -e 1040 -c 0 -i 17 -a 0 -x {0.0 4.0 10 ------- null}
h -t 0.191002666666667 -s 2 -d 3 -p tcp -e 1040 -c 0 -i 17 -a 0 -x {0.0 4.0 -1 ------- null}
r -t 0.191834666666667 -s 0 -d 2 -p tcp -e 1040 -c 0 -i 21 -a 0 -x {0.0 4.0 14 ------- null}
+ -t 0.191834666666667 -s 2 -d 3 -p tcp -e 1040 -c 0 -i 21 -a 0 -x {0.0 4.0 14 ------- null}
- -t 0.196549333333333 -s 2 -d 3 -p tcp -e 1040 -c 0 -i 18 -a 0 -x {0.0 4.0 11 ------- null}
h -t 0.196549333333333 -s 2 -d 3 -p tcp -e 1040 -c 0 -i 18 -a 0 -x {0.0 4.0 -1 ------- null}
r -t 0.199909333333333 -s 2 -d 3 -p tcp -e 1040 -c 0 -i 14 -a 0 -x {0.0 4.0 7 ------- null}
+ -t 0.199909333333333 -s 3 -d 4 -p tcp -e 1040 -c 0 -i 14 -a 0 -x {0.0 4.0 7 ------- null}
- -t 0.199909333333333 -s 3 -d 4 -p tcp -e 1040 -c 0 -i 14 -a 0 -x {0.0 4.0 7 ------- null}
h -t 0.199909333333333 -s 3 -d 4 -p tcp -e 1040 -c 0 -i 14 -a 0 -x {0.0 4.0 -1 ------- null}
- -t 0.202096 -s 2 -d 3 -p tcp -e 1040 -c 0 -i 19 -a 0 -x {0.0 4.0 12 ------- null}
h -t 0.202096 -s 2 -d 3 -p tcp -e 1040 -c 0 -i 19 -a 0 -x {0.0 4.0 -1 ------- null}
r -t 0.204741333333333 -s 3 -d 4 -p tcp -e 1040 -c 0 -i 14 -a 0 -x {0.0 4.0 7 ------- null}
+ -t 0.204741333333333 -s 4 -d 3 -p ack -e 40 -c 0 -i 22 -a 0 -x {4.0 0.0 7 ------- null}
- -t 0.204741333333333 -s 4 -d 3 -p ack -e 40 -c 0 -i 22 -a 0 -x {4.0 0.0 7 ------- null}
h -t 0.204741333333333 -s 4 -d 3 -p ack -e 40 -c 0 -i 22 -a 0 -x {4.0 0.0 -1 ------- null}
r -t 0.205456 -s 2 -d 3 -p tcp -e 1040 -c 0 -i 15 -a 0 -x {0.0 4.0 8 ------- null}
+ -t 0.205456 -s 3 -d 4 -p tcp -e 1040 -c 0 -i 15 -a 0 -x {0.0 4.0 8 ------- null}
- -t 0.205456 -s 3 -d 4 -p tcp -e 1040 -c 0 -i 15 -a 0 -x {0.0 4.0 8 ------- null}
h -t 0.205456 -s 3 -d 4 -p tcp -e 1040 -c 0 -i 15 -a 0 -x {0.0 4.0 -1 ------- null}
- -t 0.207642666666667 -s 2 -d 3 -p tcp -e 1040 -c 0 -i 20 -a 0 -x {0.0 4.0 13 ------- null}
h -t 0.207642666666667 -s 2 -d 3 -p tcp -e 1040 -c 0 -i 20 -a 0 -x {0.0 4.0 -1 ------- null}
r -t 0.208773333333333 -s 4 -d 3 -p ack -e 40 -c 0 -i 22 -a 0 -x {4.0 0.0 7 ------- null}
+ -t 0.208773333333333 -s 3 -d 2 -p ack -e 40 -c 0 -i 22 -a 0 -x {4.0 0.0 7 ------- null}
- -t 0.208773333333333 -s 3 -d 2 -p ack -e 40 -c 0 -i 22 -a 0 -x {4.0 0.0 7 ------- null}
h -t 0.208773333333333 -s 3 -d 2 -p ack -e 40 -c 0 -i 22 -a 0 -x {4.0 0.0 -1 ------- null}
r -t 0.210288 -s 3 -d 4 -p tcp -e 1040 -c 0 -i 15 -a 0 -x {0.0 4.0 8 ------- null}
+ -t 0.210288 -s 4 -d 3 -p ack -e 40 -c 0 -i 23 -a 0 -x {4.0 0.0 8 ------- null}
- -t 0.210288 -s 4 -d 3 -p ack -e 40 -c 0 -i 23 -a 0 -x {4.0 0.0 8 ------- null}
h -t 0.210288 -s 4 -d 3 -p ack -e 40 -c 0 -i 23 -a 0 -x {4.0 0.0 -1 ------- null}
r -t 0.211002666666667 -s 2 -d 3 -p tcp -e 1040 -c 0 -i 16 -a 0 -x {0.0 4.0 9 ------- null}
+ -t 0.211002666666667 -s 3 -d 4 -p tcp -e 1040 -c 0 -i 16 -a 0 -x {0.0 4.0 9 ------- null}
- -t 0.211002666666667 -s 3 -d 4 -p tcp -e 1040 -c 0 -i 16 -a 0 -x {0.0 4.0 9 ------- null}
h -t 0.211002666666667 -s 3 -d 4 -p tcp -e 1040 -c 0 -i 16 -a 0 -x {0.0 4.0 -1 ------- null}
- -t 0.213189333333333 -s 2 -d 3 -p tcp -e 1040 -c 0 -i 21 -a 0 -x {0.0 4.0 14 ------- null}
h -t 0.213189333333333 -s 2 -d 3 -p tcp -e 1040 -c 0 -i 21 -a 0 -x {0.0 4.0 -1 ------- null}
r -t 0.21432 -s 4 -d 3 -p ack -e 40 -c 0 -i 23 -a 0 -x {4.0 0.0 8 ------- null}
+ -t 0.21432 -s 3 -d 2 -p ack -e 40 -c 0 -i 23 -a 0 -x {4.0 0.0 8 ------- null}
- -t 0.21432 -s 3 -d 2 -p ack -e 40 -c 0 -i 23 -a 0 -x {4.0 0.0 8 ------- null}
h -t 0.21432 -s 3 -d 2 -p ack -e 40 -c 0 -i 23 -a 0 -x {4.0 0.0 -1 ------- null}
r -t 0.215834666666667 -s 3 -d 4 -p tcp -e 1040 -c 0 -i 16 -a 0 -x {0.0 4.0 9 ------- null}
+ -t 0.215834666666667 -s 4 -d 3 -p ack -e 40 -c 0 -i 24 -a 0 -x {4.0 0.0 9 ------- null}
- -t 0.215834666666667 -s 4 -d 3 -p ack -e 40 -c 0 -i 24 -a 0 -x {4.0 0.0 9 ------- null}
h -t 0.215834666666667 -s 4 -d 3 -p ack -e 40 -c 0 -i 24 -a 0 -x {4.0 0.0 -1 ------- null}
r -t 0.216549333333333 -s 2 -d 3 -p tcp -e 1040 -c 0 -i 17 -a 0 -x {0.0 4.0 10 ------- null}
+ -t 0.216549333333333 -s 3 -d 4 -p tcp -e 1040 -c 0 -i 17 -a 0 -x {0.0 4.0 10 ------- null}
- -t 0.216549333333333 -s 3 -d 4 -p tcp -e 1040 -c 0 -i 17 -a 0 -x {0.0 4.0 10 ------- null}
h -t 0.216549333333333 -s 3 -d 4 -p tcp -e 1040 -c 0 -i 17 -a 0 -x {0.0 4.0 -1 ------- null}
r -t 0.219866666666667 -s 4 -d 3 -p ack -e 40 -c 0 -i 24 -a 0 -x {4.0 0.0 9 ------- null}
+ -t 0.219866666666667 -s 3 -d 2 -p ack -e 40 -c 0 -i 24 -a 0 -x {4.0 0.0 9 ------- null}
- -t 0.219866666666667 -s 3 -d 2 -p ack -e 40 -c 0 -i 24 -a 0 -x {4.0 0.0 9 ------- null}
h -t 0.219866666666667 -s 3 -d 2 -p ack -e 40 -c 0 -i 24 -a 0 -x {4.0 0.0 -1 ------- null}
r -t 0.221381333333333 -s 3 -d 4 -p tcp -e 1040 -c 0 -i 17 -a 0 -x {0.0 4.0 10 ------- null}
+ -t 0.221381333333333 -s 4 -d 3 -p ack -e 40 -c 0 -i 25 -a 0 -x {4.0 0.0 10 ------- null}
- -t 0.221381333333333 -s 4 -d 3 -p ack -e 40 -c 0 -i 25 -a 0 -x {4.0 0.0 10 ------- null}
h -t 0.221381333333333 -s 4 -d 3 -p ack -e 40 -c 0 -i 25 -a 0 -x {4.0 0.0 -1 ------- null}
r -t 0.222096 -s 2 -d 3 -p tcp -e 1040 -c 0 -i 18 -a 0 -x {0.0 4.0 11 ------- null}
+ -t 0.222096 -s 3 -d 4 -p tcp -e 1040 -c 0 -i 18 -a 0 -x {0.0 4.0 11 ------- null}
- -t 0.222096 -s 3 -d 4 -p tcp -e 1040 -c 0 -i 18 -a 0 -x {0.0 4.0 11 ------- null}
h -t 0.222096 -s 3 -d 4 -p tcp -e 1040 -c 0 -i 18 -a 0 -x {0.0 4.0 -1 ------- null}
r -t 0.225413333333333 -s 4 -d 3 -p ack -e 40 -c 0 -i 25 -a 0 -x {4.0 0.0 10 ------- null}
+ -t 0.225413333333333 -s 3 -d 2 -p ack -e 40 -c 0 -i 25 -a 0 -x {4.0 0.0 10 ------- null}
- -t 0.225413333333333 -s 3 -d 2 -p ack -e 40 -c 0 -i 25 -a 0 -x {4.0 0.0 10 ------- null}
h -t 0.225413333333333 -s 3 -d 2 -p ack -e 40 -c 0 -i 25 -a 0 -x {4.0 0.0 -1 ------- null}
r -t 0.226928 -s 3 -d 4 -p tcp -e 1040 -c 0 -i 18 -a 0 -x {0.0 4.0 11 ------- null}
+ -t 0.226928 -s 4 -d 3 -p ack -e 40 -c 0 -i 26 -a 0 -x {4.0 0.0 11 ------- null}
- -t 0.226928 -s 4 -d 3 -p ack -e 40 -c 0 -i 26 -a 0 -x {4.0 0.0 11 ------- null}
h -t 0.226928 -s 4 -d 3 -p ack -e 40 -c 0 -i 26 -a 0 -x {4.0 0.0 -1 ------- null}
r -t 0.227642666666667 -s 2 -d 3 -p tcp -e 1040 -c 0 -i 19 -a 0 -x {0.0 4.0 12 ------- null}
+ -t 0.227642666666667 -s 3 -d 4 -p tcp -e 1040 -c 0 -i 19 -a 0 -x {0.0 4.0 12 ------- null}
- -t 0.227642666666667 -s 3 -d 4 -p tcp -e 1040 -c 0 -i 19 -a 0 -x {0.0 4.0 12 ------- null}
h -t 0.227642666666667 -s 3 -d 4 -p tcp -e 1040 -c 0 -i 19 -a 0 -x {0.0 4.0 -1 ------- null}
r -t 0.228986666666667 -s 3 -d 2 -p ack -e 40 -c 0 -i 22 -a 0 -x {4.0 0.0 7 ------- null}
+ -t 0.228986666666667 -s 2 -d 0 -p ack -e 40 -c 0 -i 22 -a 0 -x {4.0 0.0 7 ------- null}
- -t 0.228986666666667 -s 2 -d 0 -p ack -e 40 -c 0 -i 22 -a 0 -x {4.0 0.0 7 ------- null}
h -t 0.228986666666667 -s 2 -d 0 -p ack -e 40 -c 0 -i 22 -a 0 -x {4.0 0.0 -1 ------- null}
r -t 0.23096 -s 4 -d 3 -p ack -e 40 -c 0 -i 26 -a 0 -x {4.0 0.0 11 ------- null}
+ -t 0.23096 -s 3 -d 2 -p ack -e 40 -c 0 -i 26 -a 0 -x {4.0 0.0 11 ------- null}
- -t 0.23096 -s 3 -d 2 -p ack -e 40 -c 0 -i 26 -a 0 -x {4.0 0.0 11 ------- null}
h -t 0.23096 -s 3 -d 2 -p ack -e 40 -c 0 -i 26 -a 0 -x {4.0 0.0 -1 ------- null}
r -t 0.231018666666667 -s 2 -d 0 -p ack -e 40 -c 0 -i 22 -a 0 -x {4.0 0.0 7 ------- null}
+ -t 0.231018666666667 -s 0 -d 2 -p tcp -e 1040 -c 0 -i 27 -a 0 -x {0.0 4.0 15 ------- null}
- -t 0.231018666666667 -s 0 -d 2 -p tcp -e 1040 -c 0 -i 27 -a 0 -x {0.0 4.0 15 ------- null}
h -t 0.231018666666667 -s 0 -d 2 -p tcp -e 1040 -c 0 -i 27 -a 0 -x {0.0 4.0 -1 ------- null}
+ -t 0.231018666666667 -s 0 -d 2 -p tcp -e 1040 -c 0 -i 28 -a 0 -x {0.0 4.0 16 ------- null}
- -t 0.231850666666667 -s 0 -d 2 -p tcp -e 1040 -c 0 -i 28 -a 0 -x {0.0 4.0 16 ------- null}
h -t 0.231850666666667 -s 0 -d 2 -p tcp -e 1040 -c 0 -i 28 -a 0 -x {0.0 4.0 -1 ------- null}
r -t 0.232474666666667 -s 3 -d 4 -p tcp -e 1040 -c 0 -i 19 -a 0 -x {0.0 4.0 12 ------- null}
+ -t 0.232474666666667 -s 4 -d 3 -p ack -e 40 -c 0 -i 29 -a 0 -x {4.0 0.0 12 ------- null}
- -t 0.232474666666667 -s 4 -d 3 -p ack -e 40 -c 0 -i 29 -a 0 -x {4.0 0.0 12 ------- null}
h -t 0.232474666666667 -s 4 -d 3 -p ack -e 40 -c 0 -i 29 -a 0 -x {4.0 0.0 -1 ------- null}
r -t 0.233189333333333 -s 2 -d 3 -p tcp -e 1040 -c 0 -i 20 -a 0 -x {0.0 4.0 13 ------- null}
+ -t 0.233189333333333 -s 3 -d 4 -p tcp -e 1040 -c 0 -i 20 -a 0 -x {0.0 4.0 13 ------- null}
- -t 0.233189333333333 -s 3 -d 4 -p tcp -e 1040 -c 0 -i 20 -a 0 -x {0.0 4.0 13 ------- null}
h -t 0.233189333333333 -s 3 -d 4 -p tcp -e 1040 -c 0 -i 20 -a 0 -x {0.0 4.0 -1 ------- null}
r -t 0.233850666666667 -s 0 -d 2 -p tcp -e 1040 -c 0 -i 27 -a 0 -x {0.0 4.0 15 ------- null}
+ -t 0.233850666666667 -s 2 -d 3 -p tcp -e 1040 -c 0 -i 27 -a 0 -x {0.0 4.0 15 ------- null}
- -t 0.233850666666667 -s 2 -d 3 -p tcp -e 1040 -c 0 -i 27 -a 0 -x {0.0 4.0 15 ------- null}
h -t 0.233850666666667 -s 2 -d 3 -p tcp -e 1040 -c 0 -i 27 -a 0 -x {0.0 4.0 -1 ------- null}
r -t 0.234533333333333 -s 3 -d 2 -p ack -e 40 -c 0 -i 23 -a 0 -x {4.0 0.0 8 ------- null}
+ -t 0.234533333333333 -s 2 -d 0 -p ack -e 40 -c 0 -i 23 -a 0 -x {4.0 0.0 8 ------- null}
- -t 0.234533333333333 -s 2 -d 0 -p ack -e 40 -c 0 -i 23 -a 0 -x {4.0 0.0 8 ------- null}
h -t 0.234533333333333 -s 2 -d 0 -p ack -e 40 -c 0 -i 23 -a 0 -x {4.0 0.0 -1 ------- null}
r -t 0.234682666666667 -s 0 -d 2 -p tcp -e 1040 -c 0 -i 28 -a 0 -x {0.0 4.0 16 ------- null}
+ -t 0.234682666666667 -s 2 -d 3 -p tcp -e 1040 -c 0 -i 28 -a 0 -x {0.0 4.0 16 ------- null}
r -t 0.236506666666667 -s 4 -d 3 -p ack -e 40 -c 0 -i 29 -a 0 -x {4.0 0.0 12 ------- null}
+ -t 0.236506666666667 -s 3 -d 2 -p ack -e 40 -c 0 -i 29 -a 0 -x {4.0 0.0 12 ------- null}
- -t 0.236506666666667 -s 3 -d 2 -p ack -e 40 -c 0 -i 29 -a 0 -x {4.0 0.0 12 ------- null}
h -t 0.236506666666667 -s 3 -d 2 -p ack -e 40 -c 0 -i 29 -a 0 -x {4.0 0.0 -1 ------- null}
r -t 0.236565333333333 -s 2 -d 0 -p ack -e 40 -c 0 -i 23 -a 0 -x {4.0 0.0 8 ------- null}
+ -t 0.236565333333333 -s 0 -d 2 -p tcp -e 1040 -c 0 -i 30 -a 0 -x {0.0 4.0 17 ------- null}
- -t 0.236565333333333 -s 0 -d 2 -p tcp -e 1040 -c 0 -i 30 -a 0 -x {0.0 4.0 17 ------- null}
h -t 0.236565333333333 -s 0 -d 2 -p tcp -e 1040 -c 0 -i 30 -a 0 -x {0.0 4.0 -1 ------- null}
+ -t 0.236565333333333 -s 0 -d 2 -p tcp -e 1040 -c 0 -i 31 -a 0 -x {0.0 4.0 18 ------- null}
- -t 0.237397333333333 -s 0 -d 2 -p tcp -e 1040 -c 0 -i 31 -a 0 -x {0.0 4.0 18 ------- null}